LAMMPS Description

1000  atoms
1000  bonds
1700  angles
2800  dihedrals
100  impropers

5  atom types
5  bond types
7  angle types
11  dihedral types
1  improper types

0.0 22.0 xlo xhi
0.0 22.0 ylo yhi
0.0 22.0 zlo zhi

Masses

1 12.010  # EC c
2 16.000  # EC o
3 16.000  # EC os
4 12.010  # EC c3
5 1.008  # EC h1

Atoms

1 1 1 0.8610 10.790563 12.778187 4.109011
2 1 2 -0.5510 10.225229 13.420168 3.274420
3 1 3 -0.3740 10.290300 12.496962 5.346126
4 1 3 -0.3740 12.025706 12.222582 3.960628
5 1 4 0.0680 11.305216 11.856692 6.141984
6 1 4 0.0680 12.315176 11.379424 5.091837
7 1 5 0.0755 10.839178 11.043036 6.708231
8 1 5 0.0755 11.727718 12.598622 6.831784
9 1 5 0.0755 12.159818 10.333250 4.795960
10 1 5 0.0755 13.360100 11.533856 5.380869
11 2 1 0.8610 10.591939 15.029237 21.063431
12 2 2 -0.5510 10.570349 16.208363 21.257034
13 2 3 -0.3740 11.629380 14.205950 21.388575
14 2 3 -0.3740 9.584329 14.315711 20.487329
15 2 4 0.0680 11.385106 12.890259 20.856898
16 2 4 0.0680 9.878486 12.908441 20.573393
17 2 5 0.0755 11.684051 12.151926 21.608803
18 2 5 0.0755 11.987231 12.763663 19.947937
19 2 5 0.0755 9.285844 12.477579 21.391497
20 2 5 0.0755 9.601326 12.437719 19.624258
21 3 1 0.8610 2.389758 0.763807 6.858392
22 3 2 -0.5510 1.280849 0.419237 6.575764
23 3 3 -0.3740 2.719202 1.985003 7.368245
24 3 3 -0.3740 3.504627 -0.006676 6.717979
25 3 4 0.0680 4.152344 2.113225 7.423511
26 3 4 0.0680 4.631688 0.660834 7.316733
27 3 5 0.0755 4.420429 2.598364 8.368304
28 3 5 0.0755 4.480337 2.732356 6.578591
29 3 5 0.0755 4.827867 0.203906 8.295963
30 3 5 0.0755 5.500226 0.528663 6.662954
31 4 1 0.8610 20.443525 5.687343 5.358193
32 4 2 -0.5510 21.477063 6.070446 5.820054
33 4 3 -0.3740 19.586646 4.825332 5.976659
34 4 3 -0.3740 19.952900 6.049378 4.139788
35 4 4 0.0680 18.537768 4.451027 5.063893
36 4 4 0.0680 18.614502 5.539742 3.987128
37 4 5 0.0755 17.589637 4.438418 5.612303
38 4 5 0.0755 18.756864 3.449396 4.672073
39 4 5 0.0755 17.906520 6.361202 4.160697
40 4 5 0.0755 18.502397 5.160493 2.965924
41 5 1 0.8610 7.082872 4.796548 21.560623
42 5 2 -0.5510 6.232777 5.556204 21.919156
43 5 3 -0.3740 6.892783 3.464703 21.337327
44 5 3 -0.3740 8.379275 5.136953 21.316175
45 5 4 0.0680 8.161995 2.832232 21.087384
46 5 4 0.0680 9.072308 4.015091 20.736974
47 5 5 0.0755 8.036133 2.114483 20.269545
48 5 5 0.0755 8.476970 2.308989 21.999414
49 5 5 0.0755 9.159200 4.179731 19.654613
50 5 5 0.0755 10.069260 3.954142 21.186002
51 6 1 0.8610 10.451451 8.031087 1.475916
52 6 2 -0.5510 9.271734 8.014620 1.285439
53 6 3 -0.3740 11.373742 8.530275 0.604140
54 6 3 -0.3740 11.066799 7.554770 2.594291
55 6 4 0.0680 12.698924 8.228932 1.080036
56 6 4 0.0680 12.465685 7.895594 2.558243
57 6 5 0.0755 13.332486 9.108103 0.920276
58 6 5 0.0755 13.089784 7.377117 0.508696
59 6 5 0.0755 12.632316 8.755833 3.220350
60 6 5 0.0755 13.041493 7.034563 2.913665
61 7 1 0.8610 14.062402 10.069515 7.527953
62 7 2 -0.5510 14.786601 9.785227 6.620759
63 7 3 -0.3740 13.978568 9.381018 8.702155
64 7 3 -0.3740 13.203589 11.127174 7.537308
65 7 4 0.0680 12.887784 9.898283 9.487022
66 7 4 0.0680 12.623281 11.266642 8.848084
67 7 5 0.0755 13.209424 9.953947 10.532639
68 7 5 0.0755 12.035014 9.213544 9.393700
69 7 5 0.0755 13.134252 12.086580 9.370359
70 7 5 0.0755 11.560190 11.503031 8.733136
71 8 1 0.8610 4.647717 5.159453 4.833127
72 8 2 -0.5510 3.781080 5.484101 4.076932
73 8 3 -0.3740 5.875153 4.698103 4.458478
74 8 3 -0.3740 4.551110 5.197774 6.191615
75 8 4 0.0680 6.593514 4.242117 5.620125
76 8 4 0.0680 5.834732 4.905210 6.775621
77 8 5 0.0755 7.635905 4.567033 5.532291
78 8 5 0.0755 6.544612 3.146068 5.652922
79 8 5 0.0755 6.293353 5.848738 7.100557
80 8 5 0.0755 5.681393 4.248639 7.638556
81 9 1 0.8610 8.283509 19.924131 0.889302
82 9 2 -0.5510 7.110374 19.696265 0.878521
83 9 3 -0.3740 9.253410 19.029273 0.545318
84 9 3 -0.3740 8.842784 21.114156 1.246153
85 9 4 0.0680 10.548395 19.585054 0.841144
86 9 4 0.0680 10.256738 21.084373 0.973775
87 9 5 0.0755 11.227380 19.338443 0.017721
88 9 5 0.0755 10.914781 19.139022 1.774744
89 9 5 0.0755 10.444740 21.638753 0.044539
90 9 5 0.0755 10.780423 21.564813 1.806953
91 10 1 0.8610 11.298507 8.191284 12.508391
92 10 2 -0.5510 12.269990 8.816466 12.202363
93 10 3 -0.3740 10.013912 8.585884 12.276203
94 10 3 -0.3740 11.315863 6.983200 13.138093
95 10 4 0.0680 9.105905 7.678542 12.928618
96 10 4 0.0680 9.980279 6.446763 13.190921
97 10 5 0.0755 8.263941 7.486958 12.254633
98 10 5 0.0755 8.746054 8.149023 13.852710
99 10 5 0.0755 9.881181 5.680080 12.410832
100 10 5 0.0755 9.826185 5.996946 14.177418
101 11 1 0.8610 20.934176 8.300202 15.160987
102 11 2 -0.5510 21.603045 7.561392 14.501397
103 11 3 -0.3740 20.551281 9.552504 14.780282
104 11 3 -0.3740 20.445050 8.011947 16.399517
105 11 4 0.0680 19.906698 10.215526 15.884050
106 11 4 0.0680 19.544082 9.054839 16.817819
107 11 5 0.0755 19.038049 10.761603 15.500496
108 11 5 0.0755 20.620458 10.916910 16.335047
109 11 5 0.0755 18.513404 8.702059 16.678501
110 11 5 0.0755 19.725937 9.265833 17.876906
111 12 1 0.8610 16.734023 16.239780 3.310731
112 12 2 -0.5510 17.676582 16.895256 3.642725
113 12 3 -0.3740 16.412614 15.936253 2.020625
114 12 3 -0.3740 15.827955 15.688872 4.166202
115 12 4 0.0680 15.129442 15.283902 1.984603
116 12 4 0.0680 14.935555 14.826636 3.435096
117 12 5 0.0755 15.180051 14.459752 1.264825
118 12 5 0.0755 14.375235 16.014411 1.664729
119 12 5 0.0755 15.244641 13.785514 3.598471
120 12 5 0.0755 13.919408 14.977733 3.814398
121 13 1 0.8610 21.572283 9.887832 18.899276
122 13 2 -0.5510 22.004867 10.893522 18.419959
123 13 3 -0.3740 22.001398 8.630866 18.589920
124 13 3 -0.3740 20.581139 9.833095 19.832512
125 13 4 0.0680 21.145736 7.660544 19.222144
126 13 4 0.0680 20.439213 8.480913 20.307700
127 13 5 0.0755 21.770999 6.852153 19.616368
128 13 5 0.0755 20.451843 7.264075 18.469737
129 13 5 0.0755 20.929002 8.402280 21.287539
130 13 5 0.0755 19.371476 8.258233 20.405714
131 14 1 0.8610 4.625007 10.041156 12.529770
132 14 2 -0.5510 3.736603 9.891354 13.314998
133 14 3 -0.3740 5.927968 9.707927 12.755727
134 14 3 -0.3740 4.481070 10.568292 11.281691
135 14 4 0.0680 6.742624 10.184642 11.668313
136 14 4 0.0680 5.718006 10.436041 10.555853
137 14 5 0.0755 7.479747 9.412285 11.423406
138 14 5 0.0755 7.253688 11.101019 11.990583
139 14 5 0.0755 5.626459 9.589798 9.861841
140 14 5 0.0755 5.891582 11.360709 9.995393
141 15 1 0.8610 11.522490 11.256050 17.951995
142 15 2 -0.5510 11.135592 10.246198 18.460713
143 15 3 -0.3740 12.787173 11.456199 17.482609
144 15 3 -0.3740 10.763754 12.370881 17.757670
145 15 4 0.0680 12.945846 12.834849 17.098504
146 15 4 0.0680 11.498659 13.323377 16.965831
147 15 5 0.0755 13.511531 12.870265 16.161161
148 15 5 0.0755 13.499686 13.356246 17.889830
149 15 5 0.0755 11.127091 13.279157 15.933289
150 15 5 0.0755 11.329439 14.322735 17.380443
151 16 1 0.8610 9.530833 19.595872 15.076318
152 16 2 -0.5510 8.663802 20.347421 15.410559
153 16 3 -0.3740 10.775709 19.975497 14.668919
154 16 3 -0.3740 9.417317 18.238441 15.048303
155 16 4 0.0680 11.493719 18.826984 14.180279
156 16 4 0.0680 10.702175 17.651967 14.766287
157 16 5 0.0755 12.526953 18.886089 14.539165
158 16 5 0.0755 11.477012 18.845667 13.082935
159 16 5 0.0755 11.128756 17.277703 15.706561
160 16 5 0.0755 10.558364 16.822463 14.065932
161 17 1 0.8610 11.303683 4.331356 19.185130
162 17 2 -0.5510 11.032280 3.172085 19.081610
163 17 3 -0.3740 10.745608 5.330632 18.443642
164 17 3 -0.3740 12.213672 4.843348 20.060388
165 17 4 0.0680 11.429639 6.569010 18.711806
166 17 4 0.0680 12.154984 6.282124 20.031723
167 17 5 0.0755 10.683933 7.368261 18.782415
168 17 5 0.0755 12.119819 6.773208 17.883104
169 17 5 0.0755 11.592697 6.625891 20.910255
170 17 5 0.0755 13.177868 6.671544 20.067995
171 18 1 0.8610 1.051984 12.452609 10.668088
172 18 2 -0.5510 0.009335 11.900092 10.857549
173 18 3 -0.3740 2.251589 11.821316 10.519018
174 18 3 -0.3740 1.212040 13.802048 10.569662
175 18 4 0.0680 3.308726 12.798293 10.482039
176 18 4 0.0680 2.562575 14.100272 10.167841
177 18 5 0.0755 4.026284 12.502969 9.708891
178 18 5 0.0755 3.801543 12.816756 11.462642
179 18 5 0.0755 2.562271 14.343265 9.096806
180 18 5 0.0755 2.913838 14.961794 10.745465
181 19 1 0.8610 14.634042 8.192335 15.002288
182 19 2 -0.5510 14.064518 7.143075 15.056899
183 19 3 -0.3740 15.758669 8.430251 14.268520
184 19 3 -0.3740 14.252713 9.321116 15.663146
185 19 4 0.0680 16.264782 9.743081 14.574653
186 19 4 0.0680 15.061359 10.431242 15.229494
187 19 5 0.0755 16.589473 10.215389 13.641183
188 19 5 0.0755 17.117794 9.637983 15.257381
189 19 5 0.0755 14.476773 11.032690 14.520494
190 19 5 0.0755 15.319941 11.034908 16.105838
191 20 1 0.8610 11.776668 10.654186 13.564496
192 20 2 -0.5510 12.214230 11.101690 12.546378
193 20 3 -0.3740 10.474298 10.745519 13.958570
194 20 3 -0.3740 12.506794 9.979913 14.496463
195 20 4 0.0680 10.342813 10.252802 15.305170
196 20 4 0.0680 11.627078 9.438370 15.500043
197 20 5 0.0755 9.427092 9.654919 15.367277
198 20 5 0.0755 10.276297 11.111129 15.986083
199 20 5 0.0755 11.486944 8.367613 15.300041
200 20 5 0.0755 12.093769 9.576416 16.481062
201 21 1 0.8610 4.800292 4.772092 13.904495
202 21 2 -0.5510 4.495232 5.924664 13.986973
203 21 3 -0.3740 4.045768 3.808351 13.303080
204 21 3 -0.3740 5.950834 4.233516 14.396919
205 21 4 0.0680 4.634536 2.516309 13.542603
206 21 4 0.0680 6.066561 2.864274 13.965495
207 21 5 0.0755 4.576814 1.932589 12.617507
208 21 5 0.0755 4.066413 2.015606 14.337162
209 21 5 0.0755 6.779622 2.820429 13.131360
210 21 5 0.0755 6.437462 2.266576 14.804807
211 22 1 0.8610 9.041477 1.017101 3.368867
212 22 2 -0.5510 8.973576 0.878655 2.183748
213 22 3 -0.3740 9.055205 2.219304 4.012547
214 22 3 -0.3740 9.115628 -0.002608 4.269416
215 22 4 0.0680 9.318880 2.012883 5.412996
216 22 4 0.0680 9.007408 0.524084 5.605539
217 22 5 0.0755 8.667572 2.678459 5.989772
218 22 5 0.0755 10.371012 2.255999 5.609729
219 22 5 0.0755 7.986483 0.346001 5.969076
220 22 5 0.0755 9.727024 0.000610 6.243806
221 23 1 0.8610 7.903014 5.914076 9.874331
222 23 2 -0.5510 7.563007 7.004330 10.226506
223 23 3 -0.3740 7.725083 4.771734 10.597656
224 23 3 -0.3740 8.522798 5.634724 8.693602
225 23 4 0.0680 8.406627 3.680791 9.950560
226 23 4 0.0680 8.624970 4.207736 8.527442
227 23 5 0.0755 7.765387 2.794070 9.999556
228 23 5 0.0755 9.347701 3.492022 10.483044
229 23 5 0.0755 7.843947 3.881201 7.827772
230 23 5 0.0755 9.613558 3.976472 8.116996
231 24 1 0.8610 2.936391 13.718236 14.359700
232 24 2 -0.5510 4.001510 14.250249 14.255911
233 24 3 -0.3740 1.780868 14.173253 13.796202
234 24 3 -0.3740 2.703103 12.571112 15.056817
235 24 4 0.0680 0.671626 13.386869 14.270092
236 24 4 0.0680 1.352870 12.128756 14.821154
237 24 5 0.0755 0.000042 13.192020 13.426960
238 24 5 0.0755 0.144022 13.958445 15.044513
239 24 5 0.0755 1.377354 11.304949 14.095273
240 24 5 0.0755 0.932657 11.777623 15.769512
241 25 1 0.8610 7.016213 16.489306 10.961877
242 25 2 -0.5510 8.082803 17.017695 11.069002
243 25 3 -0.3740 6.578250 15.455863 11.736467
244 25 3 -0.3740 6.064472 16.833227 10.049627
245 25 4 0.0680 5.329633 14.960592 11.217764
246 25 4 0.0680 4.849849 16.108874 10.322292
247 25 5 0.0755 4.663225 14.750420 12.061324
248 25 5 0.0755 5.526024 14.037703 10.656963
249 25 5 0.0755 4.148872 16.782836 10.832749
250 25 5 0.0755 4.422324 15.778069 9.369903
251 26 1 0.8610 1.203335 14.875013 2.086001
252 26 2 -0.5510 1.201339 15.904816 2.692457
253 26 3 -0.3740 2.294783 14.075972 1.912573
254 26 3 -0.3740 0.116404 14.331512 1.469982
255 26 4 0.0680 1.974630 13.016455 0.991532
256 26 4 0.0680 0.441465 13.012384 0.991883
257 26 5 0.0755 2.418746 12.087268 1.364675
258 26 5 0.0755 2.398862 13.266510 0.010568
259 26 5 0.0755 0.017589 12.275172 1.686870
260 26 5 0.0755 -0.000713 12.885149 -0.001870
261 27 1 0.8610 3.269832 15.004593 21.698591
262 27 2 -0.5510 4.144853 15.759746 22.002514
263 27 3 -0.3740 3.263689 13.668991 21.974149
264 27 3 -0.3740 2.136459 15.354608 21.028331
265 27 4 0.0680 2.146451 13.045912 21.313134
266 27 4 0.0680 1.232888 14.233737 20.988964
267 27 5 0.0755 1.699030 12.319295 21.999943
268 27 5 0.0755 2.513674 12.534285 20.414147
269 27 5 0.0755 0.451458 14.388883 21.744912
270 27 5 0.0755 0.782736 14.186259 19.991786
271 28 1 0.8610 0.583395 7.847717 10.712786
272 28 2 -0.5510 0.053323 7.080750 11.460498
273 28 3 -0.3740 -0.045151 8.881570 10.083595
274 28 3 -0.3740 1.901020 7.814700 10.367727
275 28 4 0.0680 0.852629 9.483988 9.132557
276 28 4 0.0680 2.226981 8.984373 9.593159
277 28 5 0.0755 0.736892 10.571824 9.188077
278 28 5 0.0755 0.586284 9.130030 8.128283
279 28 5 0.0755 2.744411 9.701208 10.244753
280 28 5 0.0755 2.886262 8.683709 8.772060
281 29 1 0.8610 15.304633 11.161297 0.460477
282 29 2 -0.5510 14.227938 10.922758 -0.000081
283 29 3 -0.3740 15.578790 12.198944 1.301863
284 29 3 -0.3740 16.432698 10.435842 0.220735
285 29 4 0.0680 17.000275 12.283133 1.515596
286 29 4 0.0680 17.496904 10.902181 1.071814
287 29 5 0.0755 17.179100 12.497275 2.574855
288 29 5 0.0755 17.398794 13.097327 0.896675
289 29 5 0.0755 17.607271 10.199906 1.908946
290 29 5 0.0755 18.421566 10.931986 0.485839
291 30 1 0.8610 6.987508 18.941188 17.873256
292 30 2 -0.5510 7.030971 17.746905 17.864055
293 30 3 -0.3740 5.912600 19.677857 18.275370
294 30 3 -0.3740 8.004010 19.760823 17.484393
295 30 4 0.0680 6.148434 21.069403 17.990108
296 30 4 0.0680 7.667706 21.126986 17.792352
297 30 5 0.0755 5.790841 21.662327 18.838892
298 30 5 0.0755 5.591221 21.339332 17.083773
299 30 5 0.0755 8.205058 21.421580 18.703740
300 30 5 0.0755 7.981018 21.758445 16.954289
301 31 1 0.8610 18.030468 16.655190 13.661296
302 31 2 -0.5510 17.943707 17.158701 14.741682
303 31 3 -0.3740 18.171681 15.317797 13.434927
304 31 3 -0.3740 18.001932 17.334466 12.480592
305 31 4 0.0680 18.418198 15.089645 12.034725
306 31 4 0.0680 17.954491 16.399270 11.386288
307 31 5 0.0755 17.841943 14.212856 11.720027
308 31 5 0.0755 19.490693 14.902514 11.894981
309 31 5 0.0755 16.922081 16.348669 11.015167
310 31 5 0.0755 18.618415 16.759553 10.593409
311 32 1 0.8610 14.497228 18.300871 5.267127
312 32 2 -0.5510 15.612902 18.224689 4.845520
313 32 3 -0.3740 14.155733 18.217768 6.584807
314 32 3 -0.3740 13.385565 18.483552 4.500886
315 32 4 0.0680 12.721787 18.175974 6.709073
316 32 4 0.0680 12.243648 18.702491 5.350848
317 32 5 0.0755 12.428992 18.807005 7.555203
318 32 5 0.0755 12.417433 17.137650 6.893585
319 32 5 0.0755 12.020612 19.777761 5.365333
320 32 5 0.0755 11.392849 18.150828 4.937249
321 33 1 0.8610 7.794874 14.810082 2.903936
322 33 2 -0.5510 7.432977 13.671467 2.874410
323 33 3 -0.3740 8.989713 15.234258 3.406170
324 33 3 -0.3740 7.073683 15.869083 2.440587
325 33 4 0.0680 9.015188 16.673610 3.437878
326 33 4 0.0680 7.884945 17.058593 2.476134
327 33 5 0.0755 10.005624 17.009673 3.112360
328 33 5 0.0755 8.827817 17.003527 4.467848
329 33 5 0.0755 8.243416 17.266878 1.459140
330 33 5 0.0755 7.266238 17.889644 2.830832
331 34 1 0.8610 14.898715 8.488744 11.427440
332 34 2 -0.5510 14.255356 7.627327 11.949299
333 34 3 -0.3740 15.217326 9.681550 12.006667
334 34 3 -0.3740 15.418798 8.419488 10.170058
335 34 4 0.0680 15.846455 10.536634 11.033827
336 34 4 0.0680 16.276302 9.553322 9.938865
337 34 5 0.0755 16.683054 11.053362 11.516487
338 34 5 0.0755 15.107518 11.268110 10.682109
339 34 5 0.0755 17.320126 9.228430 10.043927
340 34 5 0.0755 16.100351 9.919307 8.921835
341 35 1 0.8610 20.136373 7.854661 2.650543
342 35 2 -0.5510 20.923729 8.080637 3.520768
343 35 3 -0.3740 19.992109 6.651714 2.024515
344 35 3 -0.3740 19.254880 8.760987 2.142770
345 35 4 0.0680 19.079218 6.790133 0.919590
346 35 4 0.0680 18.348995 8.099822 1.239124
347 35 5 0.0755 18.423862 5.912645 0.899845
348 35 5 0.0755 19.661170 6.843625 -0.009529
349 35 5 0.0755 17.394145 7.939638 1.757548
350 35 5 0.0755 18.196335 8.745096 0.367590
351 36 1 0.8610 9.137996 11.093261 2.775857
352 36 2 -0.5510 9.250566 11.137454 3.964831
353 36 3 -0.3740 8.192829 11.764950 2.058015
354 36 3 -0.3740 9.935171 10.365723 1.944297
355 36 4 0.0680 8.243956 11.344189 0.681884
356 36 4 0.0680 9.624445 10.685850 0.574877
357 36 5 0.0755 8.125445 12.227521 0.045059
358 36 5 0.0755 7.421848 10.639660 0.501417
359 36 5 0.0755 10.394207 11.369948 0.193251
360 36 5 0.0755 9.628203 9.758348 -0.007343
361 37 1 0.8610 13.100117 5.631120 10.680709
362 37 2 -0.5510 12.563378 6.672985 10.914616
363 37 3 -0.3740 14.320627 5.258997 11.162045
364 37 3 -0.3740 12.580470 4.645844 9.896178
365 37 4 0.0680 14.727817 4.025511 10.540677
366 37 4 0.0680 13.412567 3.473186 9.978835
367 37 5 0.0755 15.184254 3.387027 11.304790
368 37 5 0.0755 15.461710 4.254798 9.757338
369 37 5 0.0755 12.931676 2.750966 10.652113
370 37 5 0.0755 13.505976 3.043071 8.976073
371 38 1 0.8610 7.103862 9.630602 21.563823
372 38 2 -0.5510 7.585117 8.650613 22.049931
373 38 3 -0.3740 5.961972 9.649328 20.818477
374 38 3 -0.3740 7.616736 10.887908 21.675332
375 38 4 0.0680 5.776469 10.961072 20.254290
376 38 4 0.0680 6.689803 11.838914 21.117903
377 38 5 0.0755 4.715215 11.222424 20.327082
378 38 5 0.0755 6.084069 10.934803 19.200969
379 38 5 0.0755 6.154533 12.328743 21.942350
380 38 5 0.0755 7.256827 12.582333 20.547756
381 39 1 0.8610 4.520259 3.185036 19.946587
382 39 2 -0.5510 5.351437 2.365300 20.202441
383 39 3 -0.3740 4.763255 4.369094 19.315110
384 39 3 -0.3740 3.195463 3.070226 20.243278
385 39 4 0.0680 3.570909 5.176247 19.329491
386 39 4 0.0680 2.468753 4.155710 19.636681
387 39 5 0.0755 3.466756 5.657578 18.351055
388 39 5 0.0755 3.674701 5.938492 20.112435
389 39 5 0.0755 1.971670 3.780310 18.732168
390 39 5 0.0755 1.720708 4.514318 20.351583
391 40 1 0.8610 7.308748 14.835767 5.568593
392 40 2 -0.5510 7.986156 14.055073 4.968659
393 40 3 -0.3740 5.976519 15.034897 5.355716
394 40 3 -0.3740 7.756398 15.653061 6.562541
395 40 4 0.0680 5.528237 16.162837 6.130433
396 40 4 0.0680 6.639702 16.326724 7.173696
397 40 5 0.0755 4.550632 15.920576 6.561088
398 40 5 0.0755 5.439109 17.030664 5.464307
399 40 5 0.0755 6.408757 15.827382 8.124213
400 40 5 0.0755 6.922392 17.368382 7.358870
401 41 1 0.8610 6.878965 3.734582 2.747875
402 41 2 -0.5510 7.717834 4.567468 2.923617
403 41 3 -0.3740 6.990036 2.427324 3.120089
404 41 3 -0.3740 5.675697 3.955120 2.148041
405 41 4 0.0680 5.873645 1.681711 2.599395
406 41 4 0.0680 4.854881 2.777380 2.264371
407 41 5 0.0755 5.533204 0.983416 3.371632
408 41 5 0.0755 6.207454 1.126322 1.713446
409 41 5 0.0755 4.123970 2.939552 3.067882
410 41 5 0.0755 4.334900 2.621949 1.313205
411 42 1 0.8610 6.444949 11.180746 4.841445
412 42 2 -0.5510 6.951116 11.812236 5.720820
413 42 3 -0.3740 7.073762 10.805982 3.690815
414 42 3 -0.3740 5.158463 10.732158 4.845242
415 42 4 0.0680 6.118519 10.213631 2.790804
416 42 4 0.0680 4.945832 9.865232 3.714945
417 42 5 0.0755 6.582694 9.341171 2.318342
418 42 5 0.0755 5.851961 10.955394 2.026916
419 42 5 0.0755 4.973072 8.824206 4.063774
420 42 5 0.0755 3.963286 10.089188 3.286340
421 43 1 0.8610 13.875770 15.001466 20.822518
422 43 2 -0.5510 13.717053 13.817043 20.807180
423 43 3 -0.3740 14.917694 15.654846 20.233202
424 43 3 -0.3740 13.042151 15.891440 21.430233
425 43 4 0.0680 14.881620 17.047209 20.598461
426 43 4 0.0680 13.444538 17.234078 21.098946
427 43 5 0.0755 15.121564 17.644112 19.711895
428 43 5 0.0755 15.630629 17.222281 21.381485
429 43 5 0.0755 12.769746 17.618963 20.322621
430 43 5 0.0755 13.366785 17.851536 22.000032
431 44 1 0.8610 2.763872 8.639751 1.356898
432 44 2 -0.5510 2.491928 9.800233 1.269643
433 44 3 -0.3740 1.861582 7.620519 1.274166
434 44 3 -0.3740 4.018608 8.146137 1.552533
435 44 4 0.0680 2.510309 6.375679 1.594971
436 44 4 0.0680 3.997415 6.711103 1.431827
437 44 5 0.0755 2.151702 5.609043 0.899603
438 44 5 0.0755 2.247140 6.099928 2.624289
439 44 5 0.0755 4.389625 6.438382 0.442911
440 44 5 0.0755 4.634811 6.287907 2.215337
441 45 1 0.8610 5.289580 4.547668 10.853094
442 45 2 -0.5510 5.912418 3.530523 10.929080
443 45 3 -0.3740 4.010888 4.712412 11.297627
444 45 3 -0.3740 5.755150 5.707678 10.310957
445 45 4 0.0680 3.521234 6.003242 10.888496
446 45 4 0.0680 4.806582 6.765636 10.546081
447 45 5 0.0755 2.957474 6.439311 11.720291
448 45 5 0.0755 2.863148 5.867975 10.020499
449 45 5 0.0755 5.170886 7.382103 11.378794
450 45 5 0.0755 4.732104 7.372625 9.637635
451 46 1 0.8610 5.421628 12.318287 13.617429
452 46 2 -0.5510 4.272723 12.017238 13.484495
453 46 3 -0.3740 5.926632 13.569206 13.417483
454 46 3 -0.3740 6.413317 11.461792 13.990606
455 46 4 0.0680 7.363701 13.527015 13.497740
456 46 4 0.0680 7.628833 12.200011 14.218417
457 46 5 0.0755 7.705494 14.407105 14.053153
458 46 5 0.0755 7.771020 13.546116 12.478662
459 46 5 0.0755 7.764501 12.323039 15.301293
460 46 5 0.0755 8.464639 11.629030 13.800489
461 47 1 0.8610 1.049441 4.219925 9.853888
462 47 2 -0.5510 0.944521 5.101950 9.054319
463 47 3 -0.3740 0.008611 3.493070 10.352043
464 47 3 -0.3740 2.224981 3.796683 10.397268
465 47 4 0.0680 0.480059 2.641401 11.413074
466 47 4 0.0680 1.995334 2.610708 11.181530
467 47 5 0.0755 -0.001999 1.663013 11.311877
468 47 5 0.0755 0.205924 3.096143 12.373726
469 47 5 0.0755 2.319544 1.738518 10.598151
470 47 5 0.0755 2.584901 2.683954 12.101476
471 48 1 0.8610 20.158327 16.329597 15.981831
472 48 2 -0.5510 20.413774 17.287185 15.313955
473 48 3 -0.3740 20.714119 15.095164 15.817289
474 48 3 -0.3740 19.271400 16.315103 17.015969
475 48 4 0.0680 20.050237 14.149563 16.676644
476 48 4 0.0680 19.346795 15.049522 17.699315
477 48 5 0.0755 20.806693 13.489952 17.115452
478 48 5 0.0755 19.346885 13.562399 16.072222
479 48 5 0.0755 19.929813 15.184496 18.620201
480 48 5 0.0755 18.329536 14.727625 17.945935
481 49 1 0.8610 21.547907 15.382616 11.279197
482 49 2 -0.5510 22.012299 15.837579 12.282009
483 49 3 -0.3740 21.798089 14.128849 10.804558
484 49 3 -0.3740 20.693139 16.041490 10.447602
485 49 4 0.0680 21.214671 13.983821 9.496131
486 49 4 0.0680 20.203504 15.134967 9.441215
487 49 5 0.0755 20.757293 12.990760 9.429058
488 49 5 0.0755 22.010398 14.080817 8.746330
489 49 5 0.0755 19.187379 14.822940 9.717421
490 49 5 0.0755 20.183868 15.660973 8.480909
491 50 1 0.8610 10.213677 13.907948 12.227370
492 50 2 -0.5510 9.841833 13.269514 13.166742
493 50 3 -0.3740 9.966153 15.236148 12.041841
494 50 3 -0.3740 10.945332 13.413584 11.189788
495 50 4 0.0680 10.410264 15.630253 10.730034
496 50 4 0.0680 11.360690 14.494491 10.333365
497 50 5 0.0755 10.898719 16.607524 10.808896
498 50 5 0.0755 9.534807 15.701424 10.071779
499 50 5 0.0755 12.412838 14.724975 10.547896
500 50 5 0.0755 11.254464 14.172198 9.292164
501 51 1 0.8610 16.280146 1.383357 15.451884
502 51 2 -0.5510 16.787912 0.643057 14.662951
503 51 3 -0.3740 16.957493 2.102972 16.391650
504 51 3 -0.3740 14.943026 1.629356 15.540688
505 51 4 0.0680 16.019198 2.746057 17.274506
506 51 4 0.0680 14.709517 2.696829 16.478940
507 51 5 0.0755 16.374823 3.762094 17.477150
508 51 5 0.0755 15.970447 2.173135 18.209479
509 51 5 0.0755 14.517996 3.620267 15.916141
510 51 5 0.0755 13.833630 2.440775 17.084343
511 52 1 0.8610 9.948674 18.436343 20.375630
512 52 2 -0.5510 9.565192 18.906902 21.405097
513 52 3 -0.3740 11.055464 18.850549 19.695003
514 52 3 -0.3740 9.343550 17.409898 19.714929
515 52 4 0.0680 11.115254 18.182755 18.420693
516 52 4 0.0680 10.170469 16.990654 18.612758
517 52 5 0.0755 12.154781 17.895828 18.228540
518 52 5 0.0755 10.769586 18.878536 17.645326
519 52 5 0.0755 10.697602 16.071611 18.901987
520 52 5 0.0755 9.524967 16.794433 17.750159
521 53 1 0.8610 7.942605 6.187215 18.316675
522 53 2 -0.5510 8.505057 5.247873 17.837541
523 53 3 -0.3740 8.336084 7.485273 18.175172
524 53 3 -0.3740 6.817258 6.114629 19.081277
525 53 4 0.0680 7.532985 8.327247 19.023408
526 53 4 0.0680 6.321271 7.442180 19.338079
527 53 5 0.0755 7.282312 9.238398 18.469485
528 53 5 0.0755 8.117349 8.581380 19.917123
529 53 5 0.0755 5.470280 7.631881 18.670255
530 53 5 0.0755 5.994715 7.494271 20.382063
531 54 1 0.8610 17.831254 3.122380 12.478449
532 54 2 -0.5510 17.648161 1.948143 12.604661
533 54 3 -0.3740 16.950058 4.092492 12.855520
534 54 3 -0.3740 18.949412 3.682925 11.938261
535 54 4 0.0680 17.420077 5.374373 12.398078
536 54 4 0.0680 18.902180 5.112635 12.105715
537 54 5 0.0755 17.249752 6.109233 13.192329
538 54 5 0.0755 16.852834 5.654469 11.501098
539 54 5 0.0755 19.556695 5.387524 12.943693
540 54 5 0.0755 19.260588 5.581684 11.183331
541 55 1 0.8610 21.544535 2.887862 5.842835
542 55 2 -0.5510 22.001822 3.955624 6.124009
543 55 3 -0.3740 20.797399 2.629267 4.731656
544 55 3 -0.3740 21.695359 1.755657 6.585570
545 55 4 0.0680 20.272836 1.290284 4.804797
546 55 4 0.0680 21.164850 0.629013 5.861985
547 55 5 0.0755 20.351011 0.833063 3.812476
548 55 5 0.0755 19.219935 1.343983 5.110260
549 55 5 0.0755 22.002510 0.070261 5.423486
550 55 5 0.0755 20.618869 -0.008652 6.565222
551 56 1 0.8610 1.086281 20.990126 20.146165
552 56 2 -0.5510 -0.001721 21.232875 20.576991
553 56 3 -0.3740 2.240154 21.043156 20.871127
554 56 3 -0.3740 1.351053 20.620614 18.861778
555 56 4 0.0680 3.368285 20.861285 19.994980
556 56 4 0.0680 2.735326 20.240802 18.743990
557 56 5 0.0755 4.092361 20.208019 20.493800
558 56 5 0.0755 3.820985 21.842109 19.800459
559 56 5 0.0755 2.796634 19.144300 18.734749
560 56 5 0.0755 3.126601 20.643988 17.803990
561 57 1 0.8610 16.644074 6.353956 21.220478
562 57 2 -0.5510 16.972960 7.467567 21.503304
563 57 3 -0.3740 15.870340 5.548430 22.002953
564 57 3 -0.3740 16.987705 5.708283 20.070994
565 57 4 0.0680 15.820860 4.226966 21.433150
566 57 4 0.0680 16.276360 4.458727 19.987668
567 57 5 0.0755 14.795392 3.851391 21.518136
568 57 5 0.0755 16.504812 3.578386 21.995595
569 57 5 0.0755 15.436409 4.581285 19.290801
570 57 5 0.0755 16.963486 3.693075 19.612317
571 58 1 0.8610 17.608712 15.986803 19.736937
572 58 2 -0.5510 17.395389 17.028560 19.191482
573 58 3 -0.3740 16.860672 14.857617 19.578257
574 58 3 -0.3740 18.633413 15.757383 20.605064
575 58 4 0.0680 17.299529 13.853829 20.512711
576 58 4 0.0680 18.687424 14.355028 20.928835
577 58 5 0.0755 17.315030 12.886186 19.999591
578 58 5 0.0755 16.590323 13.822235 21.349861
579 58 5 0.0755 19.498296 13.894119 20.348999
580 58 5 0.0755 18.891228 14.254216 22.000075
581 59 1 0.8610 14.967022 15.197286 13.033786
582 59 2 -0.5510 16.109355 15.166442 12.683917
583 59 3 -0.3740 14.026529 16.056015 12.546075
584 59 3 -0.3740 14.418339 14.379960 13.975708
585 59 4 0.0680 12.814380 15.928899 13.312839
586 59 4 0.0680 12.992301 14.577888 14.015495
587 59 5 0.0755 11.963718 15.959402 12.623412
588 59 5 0.0755 12.756405 16.769536 14.016232
589 59 5 0.0755 12.510184 13.750943 13.477085
590 59 5 0.0755 12.671497 14.578293 15.062558
591 60 1 0.8610 1.905293 18.818369 3.043815
592 60 2 -0.5510 0.777116 18.558979 3.340833
593 60 3 -0.3740 2.864798 17.894877 2.750019
594 60 3 -0.3740 2.416292 20.077868 2.949819
595 60 4 0.0680 4.138541 18.551602 2.609727
596 60 4 0.0680 3.747405 20.019546 2.402937
597 60 5 0.0755 4.663618 18.110035 1.755808
598 60 5 0.0755 4.717148 18.391202 3.528573
599 60 5 0.0755 3.701741 20.302965 1.342867
600 60 5 0.0755 4.378636 20.726895 2.951079
601 61 1 0.8610 9.240560 0.603599 9.041857
602 61 2 -0.5510 8.155839 0.102649 9.068598
603 61 3 -0.3740 10.416703 -0.081926 9.122774
604 61 3 -0.3740 9.478904 1.940011 8.925727
605 61 4 0.0680 11.509937 0.848594 9.233961
606 61 4 0.0680 10.890686 2.165561 8.751534
607 61 5 0.0755 12.333564 0.491822 8.606095
608 61 5 0.0755 11.829316 0.888267 10.283349
609 61 5 0.0755 11.083874 2.362945 7.688576
610 61 5 0.0755 11.179221 3.035616 9.350706
611 62 1 0.8610 0.963891 9.339400 20.286300
612 62 2 -0.5510 0.715368 8.558132 21.155864
613 62 3 -0.3740 0.300576 10.513253 20.081640
614 62 3 -0.3740 1.949887 9.185192 19.358764
615 62 4 0.0680 0.749078 11.111774 18.851189
616 62 4 0.0680 2.075646 10.391686 18.582298
617 62 5 0.0755 0.856323 12.190313 19.009671
618 62 5 0.0755 -0.003362 10.920480 18.075282
619 62 5 0.0755 2.946423 10.952452 18.947605
620 62 5 0.0755 2.223881 10.114831 17.533187
621 63 1 0.8610 3.701925 0.502621 15.941854
622 63 2 -0.5510 4.748276 -0.000122 16.225902
623 63 3 -0.3740 2.824550 0.007496 15.022686
624 63 3 -0.3740 3.215088 1.651079 16.489874
625 63 4 0.0680 1.760682 0.954950 14.813150
626 63 4 0.0680 1.862118 1.863354 16.044054
627 63 5 0.0755 0.815540 0.405261 14.746712
628 63 5 0.0755 1.949481 1.489749 13.873397
629 63 5 0.0755 1.178402 1.565995 16.850447
630 63 5 0.0755 1.733916 2.927619 15.820090
631 64 1 0.8610 2.527297 17.300825 14.193814
632 64 2 -0.5510 2.842875 16.559388 13.311222
633 64 3 -0.3740 3.247790 18.388084 14.592013
634 64 3 -0.3740 1.397009 17.181245 14.945106
635 64 4 0.0680 2.662564 18.943231 15.784788
636 64 4 0.0680 1.253387 18.339236 15.789365
637 64 5 0.0755 2.674628 20.035298 15.700468
638 64 5 0.0755 3.263087 18.627810 16.647732
639 64 5 0.0755 0.502930 19.005414 15.343068
640 64 5 0.0755 0.917307 18.008138 16.777636
641 65 1 0.8610 14.385245 19.606090 10.161533
642 65 2 -0.5510 14.049402 19.231348 9.077530
643 65 3 -0.3740 14.900957 20.838879 10.433703
644 65 3 -0.3740 14.307246 18.863709 11.301304
645 65 4 0.0680 15.351784 20.881371 11.800575
646 65 4 0.0680 14.630861 19.687543 12.437487
647 65 5 0.0755 15.067632 21.848614 12.229018
648 65 5 0.0755 16.444051 20.773556 11.811483
649 65 5 0.0755 13.696403 19.972458 12.939256
650 65 5 0.0755 15.258170 19.105115 13.120507
651 66 1 0.8610 0.801414 5.912829 4.995753
652 66 2 -0.5510 0.458352 6.981870 4.586186
653 66 3 -0.3740 2.056913 5.614589 5.436864
654 66 3 -0.3740 -0.005219 4.818801 5.089225
655 66 4 0.0680 2.155550 4.200372 5.689155
656 66 4 0.0680 0.688536 3.765068 5.783987
657 66 5 0.0755 2.720794 4.052509 6.615707
658 66 5 0.0755 2.684545 3.731926 4.849206
659 66 5 0.0755 0.321102 3.728315 6.818299
660 66 5 0.0755 0.474840 2.817369 5.278560
661 67 1 0.8610 6.612421 1.088824 17.546167
662 67 2 -0.5510 6.284890 -0.032005 17.800627
663 67 3 -0.3740 5.959528 2.206824 17.974666
664 67 3 -0.3740 7.690840 1.432216 16.787625