LAMMPS Description

500  atoms
500  bonds
850  angles
1400  dihedrals
50  impropers

5  atom types
5  bond types
7  angle types
11  dihedral types
1  improper types

0.0 18.0 xlo xhi
0.0 18.0 ylo yhi
0.0 18.0 zlo zhi

Masses

1 12.010  # EC c
2 16.000  # EC o
3 16.000  # EC os
4 12.010  # EC c3
5 1.008  # EC h1

Atoms

1 1 1 0.8610 1.743238 14.601279 12.979348
2 1 2 -0.5510 1.001780 14.004727 13.702295
3 1 3 -0.3740 1.481698 15.822872 12.432438
4 1 3 -0.3740 2.969872 14.158912 12.584417
5 1 4 0.0680 2.512320 16.156574 11.483833
6 1 4 0.0680 3.651492 15.203754 11.864665
7 1 5 0.0755 2.763847 17.215881 11.604113
8 1 5 0.0755 2.127295 15.975865 10.471957
9 1 5 0.0755 4.387616 15.666545 12.535565
10 1 5 0.0755 4.160521 14.756757 11.004236
11 2 1 0.8610 9.431207 6.790740 5.579558
12 2 2 -0.5510 10.446709 7.291956 5.197691
13 2 3 -0.3740 8.500190 7.413711 6.357324
14 2 3 -0.3740 9.038066 5.516548 5.299975
15 2 4 0.0680 7.499737 6.462316 6.766386
16 2 4 0.0680 7.692849 5.311534 5.771891
17 2 5 0.0755 6.517535 6.942733 6.700483
18 2 5 0.0755 7.702786 6.166355 7.803675
19 2 5 0.0755 7.009474 5.370546 4.914176
20 2 5 0.0755 7.633297 4.317858 6.228308
21 3 1 0.8610 17.070022 9.092595 14.595356
22 3 2 -0.5510 17.993507 9.784084 14.907293
23 3 3 -0.3740 17.091693 8.172339 13.589143
24 3 3 -0.3740 15.846213 9.110441 15.193907
25 3 4 0.0680 15.764645 7.653003 13.382688
26 3 4 0.0680 15.041586 8.031874 14.680476
27 3 5 0.0755 15.837466 6.572675 13.216998
28 3 5 0.0755 15.333181 8.139074 12.498174
29 3 5 0.0755 15.036603 7.218492 15.418409
30 3 5 0.0755 14.022512 8.402293 14.527069
31 4 1 0.8610 11.311859 4.977137 11.761481
32 4 2 -0.5510 10.426095 4.260063 11.401603
33 4 3 -0.3740 12.637272 4.659048 11.717852
34 4 3 -0.3740 11.142202 6.228450 12.273068
35 4 4 0.0680 13.400060 5.680454 12.387385
36 4 4 0.0680 12.425230 6.862919 12.433164
37 4 5 0.0755 14.304924 5.876566 11.802042
38 4 5 0.0755 13.672157 5.314907 13.385949
39 4 5 0.0755 12.571604 7.568026 11.603972
40 4 5 0.0755 12.428666 7.402318 13.386207
41 5 1 0.8610 4.253083 0.350856 11.893200
42 5 2 -0.5510 4.729836 0.002465 10.854154
43 5 3 -0.3740 4.869154 1.163527 12.798642
44 5 3 -0.3740 3.017230 -0.006255 12.342011
45 5 4 0.0680 4.079905 1.230393 14.001142
46 5 4 0.0680 2.705595 0.732729 13.538308
47 5 5 0.0755 4.077592 2.266472 14.356668
48 5 5 0.0755 4.536787 0.576876 14.755440
49 5 5 0.0755 2.022687 1.551437 13.274653
50 5 5 0.0755 2.218786 0.054966 14.247470
51 6 1 0.8610 7.059093 7.251598 3.778190
52 6 2 -0.5510 8.218013 7.520653 3.891323
53 6 3 -0.3740 6.561863 6.279677 2.960916
54 6 3 -0.3740 6.046557 7.871029 4.447047
55 6 4 0.0680 5.123759 6.350840 2.947459
56 6 4 0.0680 4.808844 7.177273 4.199836
57 6 5 0.0755 4.726248 5.330653 2.980153
58 6 5 0.0755 4.807355 6.846287 2.020522
59 6 5 0.0755 4.577443 6.554330 5.074226
60 6 5 0.0755 4.018378 7.920618 4.051994
61 7 1 0.8610 3.556108 16.025613 15.256216
62 7 2 -0.5510 4.105064 16.940502 14.717783
63 7 3 -0.3740 2.316821 16.085586 15.822235
64 7 3 -0.3740 4.078119 14.774448 15.391800
65 7 4 0.0680 2.048434 14.857933 16.525247
66 7 4 0.0680 3.077879 13.889537 15.931055
67 7 5 0.0755 1.009142 14.569507 16.334075
68 7 5 0.0755 2.197486 15.030653 17.598906
69 7 5 0.0755 2.669288 13.283907 15.111039
70 7 5 0.0755 3.553689 13.239785 16.673134
71 8 1 0.8610 17.358745 9.130398 11.626374
72 8 2 -0.5510 18.018755 8.136085 11.563016
73 8 3 -0.3740 17.570611 10.150491 12.506332
74 8 3 -0.3740 16.288298 9.407027 10.830188
75 8 4 0.0680 16.488910 11.096658 12.416441
76 8 4 0.0680 15.847121 10.757624 11.065969
77 8 5 0.0755 16.908117 12.107497 12.464749
78 8 5 0.0755 15.809925 10.932198 13.263036
79 8 5 0.0755 16.214459 11.392336 10.248434
80 8 5 0.0755 14.752170 10.766801 11.081901
81 9 1 0.8610 14.676584 7.652698 17.544627
82 9 2 -0.5510 15.749305 7.314009 17.948170
83 9 3 -0.3740 14.346220 8.926526 17.186822
84 9 3 -0.3740 13.609843 6.822115 17.375845
85 9 4 0.0680 12.933711 9.000099 16.917013
86 9 4 0.0680 12.545918 7.530943 16.712542
87 9 5 0.0755 12.782722 9.624261 16.029607
88 9 5 0.0755 12.435973 9.454550 17.783340
89 9 5 0.0755 12.536748 7.236044 15.654661
90 9 5 0.0755 11.597597 7.253945 17.184997
91 10 1 0.8610 17.743191 6.704801 1.071428
92 10 2 -0.5510 18.068321 6.261952 0.010079
93 10 3 -0.3740 18.000300 6.113756 2.273245
94 10 3 -0.3740 17.063734 7.871588 1.253739
95 10 4 0.0680 17.316935 6.830533 3.318536
96 10 4 0.0680 16.997741 8.177564 2.659572
97 10 5 0.0755 17.988085 6.908753 4.180687
98 10 5 0.0755 16.415657 6.268636 3.595593
99 10 5 0.0755 17.745956 8.949536 2.884058
100 10 5 0.0755 15.994477 8.553847 2.885684
101 11 1 0.8610 9.698416 12.703799 6.146351
102 11 2 -0.5510 8.916890 13.590894 6.321182
103 11 3 -0.3740 11.001961 12.724747 6.546520
104 11 3 -0.3740 9.414691 11.527696 5.519794
105 11 4 0.0680 11.686071 11.572322 6.019926
106 11 4 0.0680 10.535297 10.631523 5.644125
107 11 5 0.0755 12.344960 11.174613 6.799386
108 11 5 0.0755 12.280037 11.885429 5.151617
109 11 5 0.0755 10.310222 9.898540 6.430406
110 11 5 0.0755 10.677427 10.119358 4.686659
111 12 1 0.8610 17.046052 1.615378 2.052179
112 12 2 -0.5510 17.386818 0.512865 1.741325
113 12 3 -0.3740 16.084295 2.341755 1.414054
114 12 3 -0.3740 17.561956 2.325586 3.094167
115 12 4 0.0680 16.058789 3.679602 1.945942
116 12 4 0.0680 16.799273 3.533050 3.280414
117 12 5 0.0755 15.013727 3.989975 2.052612
118 12 5 0.0755 16.576879 4.344706 1.243083
119 12 5 0.0755 16.119746 3.388722 4.131045
120 12 5 0.0755 17.493948 4.352475 3.493078
121 13 1 0.8610 7.612948 14.575302 12.627506
122 13 2 -0.5510 7.813032 15.601156 13.207053
123 13 3 -0.3740 7.917701 13.336626 13.109806
124 13 3 -0.3740 7.047763 14.475991 11.391790
125 13 4 0.0680 7.701004 12.352500 12.081250
126 13 4 0.0680 6.801490 13.090918 11.083139
127 13 5 0.0755 7.228816 11.474805 12.535732
128 13 5 0.0755 8.672884 12.075072 11.653144
129 13 5 0.0755 5.734069 12.883599 11.237387
130 13 5 0.0755 7.067448 12.916726 10.035199
131 14 1 0.8610 3.120376 6.550869 6.724652
132 14 2 -0.5510 2.650247 7.644829 6.622107
133 14 3 -0.3740 4.211291 6.240350 7.481809
134 14 3 -0.3740 2.643271 5.436403 6.102858
135 14 4 0.0680 4.597516 4.875640 7.233240
136 14 4 0.0680 3.342271 4.275027 6.589628
137 14 5 0.0755 4.868461 4.412971 8.188432
138 14 5 0.0755 5.463082 4.875148 6.558268
139 14 5 0.0755 2.698113 3.758131 7.313534
140 14 5 0.0755 3.552667 3.615997 5.740706
141 15 1 0.8610 6.160578 3.065841 13.636451
142 15 2 -0.5510 5.340140 3.311121 12.802781
143 15 3 -0.3740 7.144902 3.921333 14.035253
144 15 3 -0.3740 6.245948 1.892808 14.324198
145 15 4 0.0680 8.048816 3.235780 14.922015
146 15 4 0.0680 7.235957 2.013028 15.363319
147 15 5 0.0755 8.308723 3.912915 15.742868
148 15 5 0.0755 8.951820 2.965535 14.359570
149 15 5 0.0755 6.720048 2.167314 16.320499
150 15 5 0.0755 7.816454 1.085088 15.398039
151 16 1 0.8610 6.616206 10.823650 6.747739
152 16 2 -0.5510 7.800962 10.667092 6.759001
153 16 3 -0.3740 5.700532 9.857130 7.043008
154 16 3 -0.3740 5.987662 11.992341 6.438895
155 16 4 0.0680 4.375956 10.346035 6.760411
156 16 4 0.0680 4.576466 11.864711 6.696925
157 16 5 0.0755 3.708093 10.022110 7.565952
158 16 5 0.0755 4.043348 9.920821 5.804714
159 16 5 0.0755 4.349147 12.364540 7.648060
160 16 5 0.0755 4.029722 12.349303 5.881145
161 17 1 0.8610 13.936134 13.059493 16.350329
162 17 2 -0.5510 13.949792 11.905562 16.661040
163 17 3 -0.3740 14.721818 13.614645 15.383732
164 17 3 -0.3740 13.133751 14.007658 16.910201
165 17 4 0.0680 14.565413 15.045971 15.399062
166 17 4 0.0680 13.258126 15.240519 16.176084
167 17 5 0.0755 14.520591 15.400528 14.363617
168 17 5 0.0755 15.432239 15.486486 15.908326
169 17 5 0.0755 12.383932 15.345329 15.519607
170 17 5 0.0755 13.288167 16.068691 16.891963
171 18 1 0.8610 11.373380 11.126751 9.661325
172 18 2 -0.5510 11.786897 10.026456 9.877286
173 18 3 -0.3740 10.078275 11.518766 9.831126
174 18 3 -0.3740 12.127782 12.168166 9.211188
175 18 4 0.0680 9.906425 12.851182 9.312933
176 18 4 0.0680 11.344481 13.376612 9.232120
177 18 5 0.0755 9.269479 13.412459 10.005128
178 18 5 0.0755 9.422560 12.783829 8.330014
179 18 5 0.0755 11.633428 13.964391 10.113701
180 18 5 0.0755 11.557572 13.943645 8.319804
181 19 1 0.8610 11.032050 0.822920 7.485136
182 19 2 -0.5510 12.086167 0.572953 6.980518
183 19 3 -0.3740 10.344881 1.988627 7.315631
184 19 3 -0.3740 10.345243 -0.015368 8.310884
185 19 4 0.0680 9.210757 2.012560 8.202524
186 19 4 0.0680 9.044678 0.537933 8.587889
187 19 5 0.0755 8.354507 2.425954 7.658644
188 19 5 0.0755 9.452614 2.651774 9.061420
189 19 5 0.0755 8.304146 0.016169 7.966974
190 19 5 0.0755 8.819630 0.380470 9.647990
191 20 1 0.8610 0.972689 2.024085 10.329646
192 20 2 -0.5510 -0.019840 1.361673 10.263440
193 20 3 -0.3740 0.997440 3.368599 10.556526
194 20 3 -0.3740 2.240250 1.544440 10.189935
195 20 4 0.0680 2.342089 3.859004 10.399011
196 20 4 0.0680 3.187170 2.583897 10.501728
197 20 5 0.0755 2.540977 4.585790 11.194052
198 20 5 0.0755 2.423753 4.345289 9.418373
199 20 5 0.0755 3.574903 2.410246 11.514481
200 20 5 0.0755 4.005776 2.536160 9.775876
201 21 1 0.8610 2.788393 7.388292 11.913573
202 21 2 -0.5510 3.743883 7.446548 12.629067
203 21 3 -0.3740 1.561013 7.903169 12.210635
204 21 3 -0.3740 2.769599 6.799014 10.685286
205 21 4 0.0680 0.613069 7.499673 11.204661
206 21 4 0.0680 1.511229 7.069443 10.038976
207 21 5 0.0755 -0.031372 8.354683 10.973320
208 21 5 0.0755 0.010282 6.673918 11.604121
209 21 5 0.0755 1.662831 7.868251 9.300678
210 21 5 0.0755 1.176334 6.155937 9.536377
211 22 1 0.8610 5.654751 5.217702 11.284872
212 22 2 -0.5510 4.685409 5.901935 11.427997
213 22 3 -0.3740 6.830347 5.383282 11.955963
214 22 3 -0.3740 5.743234 4.161243 10.429093
215 22 4 0.0680 7.825576 4.497380 11.409990
216 22 4 0.0680 6.986190 3.466709 10.645948
217 22 5 0.0755 8.401543 4.071014 12.238445
218 22 5 0.0755 8.487108 5.077481 10.753750
219 22 5 0.0755 6.782356 2.562426 11.234919
220 22 5 0.0755 7.403667 3.190907 9.671833
221 23 1 0.8610 12.373974 5.420736 6.294920
222 23 2 -0.5510 13.052364 5.863950 5.416493
223 23 3 -0.3740 12.843915 4.996885 7.502939
224 23 3 -0.3740 11.021603 5.267251 6.233055
225 23 4 0.0680 11.778817 4.368549 8.240604
226 23 4 0.0680 10.520569 4.873300 7.524608
227 23 5 0.0755 11.848503 4.685211 9.286900
228 23 5 0.0755 11.900211 3.279930 8.170151
229 23 5 0.0755 10.078092 5.753300 8.010380
230 23 5 0.0755 9.755396 4.103429 7.379472
231 24 1 0.8610 10.798899 7.699499 8.729669
232 24 2 -0.5510 11.800096 7.095843 8.481698
233 24 3 -0.3740 10.340893 7.964518 9.986570
234 24 3 -0.3740 9.952806 8.221392 7.797980
235 24 4 0.0680 9.029550 8.553966 9.907076
236 24 4 0.0680 8.953073 9.026909 8.450681
237 24 5 0.0755 8.970304 9.366784 10.638978
238 24 5 0.0755 8.285151 7.782671 10.143228
239 24 5 0.0755 9.224632 10.084349 8.331363
240 24 5 0.0755 7.986597 8.834053 7.973202
241 25 1 0.8610 0.795732 12.191076 5.681994
242 25 2 -0.5510 0.543858 11.292027 4.935967
243 25 3 -0.3740 1.908357 12.262337 6.467355
244 25 3 -0.3740 0.013395 13.290743 5.869003
245 25 4 0.0680 1.798047 13.388473 7.357882
246 25 4 0.0680 0.706477 14.240944 6.700326
247 25 5 0.0755 2.773264 13.884400 7.411468
248 25 5 0.0755 1.509867 13.021136 8.351264
249 25 5 0.0755 1.113818 15.033840 6.058805
250 25 5 0.0755 -0.009718 14.667250 7.410667
251 26 1 0.8610 12.825677 4.618254 15.583524
252 26 2 -0.5510 13.937505 4.970159 15.844842
253 26 3 -0.3740 11.962810 5.300001 14.776998
254 26 3 -0.3740 12.239553 3.479337 16.047872
255 26 4 0.0680 10.664725 4.678752 14.826147
256 26 4 0.0680 10.970690 3.287841 15.393916
257 26 5 0.0755 10.250936 4.660516 13.812090
258 26 5 0.0755 10.017699 5.273464 15.483769
259 26 5 0.0755 11.092546 2.526025 14.612284
260 26 5 0.0755 10.245055 2.944809 16.138924
261 27 1 0.8610 2.893889 16.625958 5.686184
262 27 2 -0.5510 1.951564 17.284165 6.013405
263 27 3 -0.3740 3.751295 16.010774 6.550017
264 27 3 -0.3740 3.264650 16.382572 4.397933
265 27 4 0.0680 4.859156 15.456404 5.816050
266 27 4 0.0680 4.332091 15.415893 4.376893
267 27 5 0.0755 5.089230 14.468691 6.230000
268 27 5 0.0755 5.723906 16.122139 5.933503
269 27 5 0.0755 3.912149 14.438371 4.104387
270 27 5 0.0755 5.067386 15.727713 3.627649
271 28 1 0.8610 10.831889 1.038651 11.396586
272 28 2 -0.5510 9.659916 0.930584 11.604157
273 28 3 -0.3740 11.482667 2.221777 11.205528
274 28 3 -0.3740 11.708297 -0.001522 11.317578
275 28 4 0.0680 12.843689 1.964801 10.811862
276 28 4 0.0680 13.053643 0.505692 11.233208
277 28 5 0.0755 13.495076 2.673478 11.334677
278 28 5 0.0755 12.926770 2.110202 9.727082
279 28 5 0.0755 13.524711 0.411043 12.220779
280 28 5 0.0755 13.603966 -0.091914 10.498860
281 29 1 0.8610 12.596107 10.974171 12.848197
282 29 2 -0.5510 13.139519 9.957832 12.531900
283 29 3 -0.3740 12.128541 11.911277 11.974688
284 29 3 -0.3740 12.354803 11.361806 14.131865
285 29 4 0.0680 11.694225 13.074797 12.703372
286 29 4 0.0680 11.533092 12.544656 14.132917
287 29 5 0.0755 10.760251 13.433841 12.257677
288 29 5 0.0755 12.469386 13.847583 12.621394
289 29 5 0.0755 10.500320 12.251750 14.364753
290 29 5 0.0755 11.908787 13.227009 14.902659
291 30 1 0.8610 11.996331 10.564918 1.084019
292 30 2 -0.5510 13.191309 10.569894 1.066991
293 30 3 -0.3740 11.205868 11.522166 0.519529
294 30 3 -0.3740 11.229483 9.602701 1.669147
295 30 4 0.0680 9.832037 11.287181 0.881135
296 30 4 0.0680 9.843967 9.826045 1.345410
297 30 5 0.0755 9.206613 11.465321 -0.000327
298 30 5 0.0755 9.557483 11.985552 1.682190
299 30 5 0.0755 9.553685 9.124525 0.551833
300 30 5 0.0755 9.244281 9.642302 2.243113
301 31 1 0.8610 7.502588 4.485596 0.463480
302 31 2 -0.5510 6.842337 3.602121 0.003235
303 31 3 -0.3740 8.602071 4.306942 1.250261
304 31 3 -0.3740 7.265113 5.814168 0.276949
305 31 4 0.0680 9.039767 5.579512 1.762490
306 31 4 0.0680 8.353139 6.581207 0.826669
307 31 5 0.0755 10.133772 5.612676 1.718716
308 31 5 0.0755 8.703890 5.671103 2.803446
309 31 5 0.0755 9.001386 6.907463 0.002355
310 31 5 0.0755 7.936897 7.453640 1.341312
311 32 1 0.8610 16.570638 7.699833 7.740242
312 32 2 -0.5510 16.873388 6.556196 7.909720
313 32 3 -0.3740 17.296575 8.597872 7.014745
314 32 3 -0.3740 15.451611 8.292315 8.243268
315 32 4 0.0680 16.728850 9.912231 7.168175
316 32 4 0.0680 15.320095 9.618480 7.697069
317 32 5 0.0755 16.739306 10.410010 6.192485
318 32 5 0.0755 17.342161 10.476243 7.882690
319 32 5 0.0755 14.562906 9.594747 6.901920
320 32 5 0.0755 14.998761 10.292854 8.497830
321 33 1 0.8610 0.887263 12.366160 11.055436
322 33 2 -0.5510 0.013502 13.179442 10.997136
323 33 3 -0.3740 1.624828 12.094695 12.169935
324 33 3 -0.3740 1.288322 11.577863 10.019081
325 33 4 0.0680 2.694362 11.191896 11.831641
326 33 4 0.0680 2.235609 10.601933 10.492948
327 33 5 0.0755 2.787696 10.450157 12.632251
328 33 5 0.0755 3.624190 11.768797 11.745638
329 33 5 0.0755 1.718124 9.639901 10.606376
330 33 5 0.0755 3.037220 10.509032 9.752648
331 34 1 0.8610 7.171958 14.325981 15.806637
332 34 2 -0.5510 6.262004 13.559953 15.690579
333 34 3 -0.3740 7.076499 15.570444 16.356186
334 34 3 -0.3740 8.452085 14.080986 15.409718
335 34 4 0.0680 8.319680 16.273912 16.174463
336 34 4 0.0680 9.309976 15.146264 15.860879
337 34 5 0.0755 8.547822 16.817962 17.097407
338 34 5 0.0755 8.202683 16.980476 15.342675
339 34 5 0.0755 9.857508 14.801177 16.748169
340 34 5 0.0755 10.014871 15.387182 15.058173
341 35 1 0.8610 14.687295 12.681733 5.029621
342 35 2 -0.5510 15.316550 12.048551 5.824230
343 35 3 -0.3740 13.997425 13.823046 5.314734
344 35 3 -0.3740 14.557049 12.367244 3.710369
345 35 4 0.0680 13.221472 14.216237 4.167264
346 35 4 0.0680 13.880903 13.437256 3.023170
347 35 5 0.0755 13.290986 15.303983 4.058441
348 35 5 0.0755 12.177137 13.922830 4.334796
349 35 5 0.0755 14.628636 14.030185 2.479580
350 35 5 0.0755 13.167283 12.999486 2.317224
351 36 1 0.8610 13.912990 16.289120 10.831927
352 36 2 -0.5510 12.767259 16.404759 10.512217
353 36 3 -0.3740 14.973833 16.738879 10.102452
354 36 3 -0.3740 14.345817 15.690132 11.976551
355 36 4 0.0680 16.199774 16.276664 10.699792
356 36 4 0.0680 15.765602 15.886772 12.117568
357 36 5 0.0755 16.928906 17.093583 10.670231
358 36 5 0.0755 16.570906 15.422531 10.118837
359 36 5 0.0755 15.935874 16.686853 12.850397
360 36 5 0.0755 16.211073 14.952535 12.475354
361 37 1 0.8610 7.607546 4.885875 17.718562
362 37 2 -0.5510 7.733854 3.736700 18.021430
363 37 3 -0.3740 8.558986 5.634430 17.090683
364 37 3 -0.3740 6.493235 5.634762 17.950448
365 37 4 0.0680 8.134236 7.009351 17.040001
366 37 4 0.0680 6.626408 6.913043 17.300367
367 37 5 0.0755 8.387116 7.413780 16.053921
368 37 5 0.0755 8.665711 7.567992 17.821184
369 37 5 0.0755 6.034538 6.897337 16.375378
370 37 5 0.0755 6.243736 7.686394 17.974715
371 38 1 0.8610 10.036594 0.982702 3.102326
372 38 2 -0.5510 10.443598 -0.006747 2.569763
373 38 3 -0.3740 9.361500 1.985170 2.470574
374 38 3 -0.3740 10.180037 1.270090 4.426382
375 38 4 0.0680 9.179937 3.089306 3.376835
376 38 4 0.0680 9.420415 2.450284 4.749582
377 38 5 0.0755 8.166312 3.482883 3.244450
378 38 5 0.0755 9.917386 3.865197 3.134030
379 38 5 0.0755 8.489951 2.141538 5.244630
380 38 5 0.0755 10.015579 3.070556 5.428035
381 39 1 0.8610 12.456816 3.691712 3.812060
382 39 2 -0.5510 11.958893 4.777681 3.844141
383 39 3 -0.3740 12.804537 3.028239 2.672456
384 39 3 -0.3740 12.758531 2.940274 4.907779
385 39 4 0.0680 13.212131 1.686927 3.001300
386 39 4 0.0680 13.501906 1.774543 4.504285
387 39 5 0.0755 14.089537 1.433525 2.396478
388 39 5 0.0755 12.385841 1.003522 2.766790
389 39 5 0.0755 14.564360 1.945000 4.724053
390 39 5 0.0755 13.136160 0.915154 5.076068
391 40 1 0.8610 9.167006 9.694842 16.655600
392 40 2 -0.5510 10.072678 8.931127 16.813028
393 40 3 -0.3740 7.914811 9.534215 17.171361
394 40 3 -0.3740 9.237850 10.849775 15.936293
395 40 4 0.0680 7.041131 10.547715 16.639486
396 40 4 0.0680 8.020237 11.600064 16.106078
397 40 5 0.0755 6.399657 10.911725 17.449345
398 40 5 0.0755 6.426753 10.098953 15.848319
399 40 5 0.0755 8.207009 12.410488 16.823358
400 40 5 0.0755 7.733456 12.019548 15.136003
401 41 1 0.8610 6.814538 8.049565 13.550163
402 41 2 -0.5510 5.624289 8.000067 13.645782
403 41 3 -0.3740 7.552555 7.346138 12.644444
404 41 3 -0.3740 7.627526 8.816533 14.329330
405 41 4 0.0680 8.953814 7.515860 12.929151
406 41 4 0.0680 8.974545 8.761695 13.822502
407 41 5 0.0755 9.486866 7.643630 11.980787
408 41 5 0.0755 9.316762 6.617196 13.444383
409 41 5 0.0755 9.174131 9.684689 13.261781
410 41 5 0.0755 9.661624 8.685521 14.671840
411 42 1 0.8610 16.221084 4.249210 6.214160
412 42 2 -0.5510 16.068654 5.331559 5.730866
413 42 3 -0.3740 17.391609 3.790644 6.742736
414 42 3 -0.3740 15.251068 3.297934 6.316302
415 42 4 0.0680 17.257259 2.395474 7.072645
416 42 4 0.0680 15.737639 2.194463 7.103667
417 42 5 0.0755 17.745778 2.219090 8.037064
418 42 5 0.0755 17.748594 1.802802 6.290263
419 42 5 0.0755 15.317744 2.275780 8.115218
420 42 5 0.0755 15.405238 1.261735 6.635925
421 43 1 0.8610 14.206039 15.165225 8.410768
422 43 2 -0.5510 13.746345 16.125314 7.867448
423 43 3 -0.3740 15.346654 14.524535 8.025647
424 43 3 -0.3740 13.666366 14.555038 9.502883
425 43 4 0.0680 15.503473 13.316714 8.793741
426 43 4 0.0680 14.572199 13.546691 9.989755
427 43 5 0.0755 16.558928 13.215913 9.068913
428 43 5 0.0755 15.195648 12.465593 8.172751
429 43 5 0.0755 15.097497 13.944547 10.868352
430 43 5 0.0755 13.988870 12.663979 10.272247
431 44 1 0.8610 16.072827 5.969070 10.466024
432 44 2 -0.5510 16.991566 6.229176 11.184738
433 44 3 -0.3740 15.226361 6.888928 9.920900
434 44 3 -0.3740 15.721870 4.712332 10.073942
435 44 4 0.0680 14.142872 6.212237 9.256420
436 44 4 0.0680 14.684550 4.789117 9.077743
437 44 5 0.0755 13.939009 6.728888 8.312293
438 44 5 0.0755 13.257213 6.251871 9.903590
439 44 5 0.0755 15.136575 4.626231 8.090169
440 44 5 0.0755 13.947258 4.006100 9.283992
441 45 1 0.8610 14.028142 7.962692 0.757087
442 45 2 -0.5510 14.884633 8.702700 0.373556
443 45 3 -0.3740 13.828605 7.611733 2.059706
444 45 3 -0.3740 13.111838 7.349954 -0.043682
445 45 4 0.0680 12.829333 6.577529 2.132288
446 45 4 0.0680 12.132763 6.676498 0.770082
447 45 5 0.0755 12.171066 6.791020 2.981387
448 45 5 0.0755 13.333908 5.614435 2.282774
449 45 5 0.0755 11.222667 7.290464 0.800616
450 45 5 0.0755 11.912209 5.705381 0.314512
451 46 1 0.8610 8.140723 16.786458 8.084676
452 46 2 -0.5510 7.312876 16.798271 8.946542
453 46 3 -0.3740 8.875522 17.867699 7.696355
454 46 3 -0.3740 8.485520 15.691735 7.350517
455 46 4 0.0680 9.643445 17.532773 6.525241
456 46 4 0.0680 9.630215 15.999677 6.532478
457 46 5 0.0755 10.643796 17.966225 6.631460
458 46 5 0.0755 9.142686 17.958084 5.645955
459 46 5 0.0755 10.522835 15.568193 7.004931
460 46 5 0.0755 9.479521 15.554002 5.543579
461 47 1 0.8610 15.792738 15.959193 5.297637
462 47 2 -0.5510 15.220001 16.392394 6.252935
463 47 3 -0.3740 16.239492 16.710664 4.250973
464 47 3 -0.3740 16.092991 14.645185 5.098828
465 47 4 0.0680 16.722630 15.844094 3.207409
466 47 4 0.0680 16.933560 14.512187 3.936891
467 47 5 0.0755 17.643326 16.274294 2.798618
468 47 5 0.0755 15.957682 15.782499 2.422647
469 47 5 0.0755 17.969986 14.368776 4.270679
470 47 5 0.0755 16.601188 13.638215 3.366841
471 48 1 0.8610 15.388389 10.142836 4.341201
472 48 2 -0.5510 16.214757 10.978038 4.122481
473 48 3 -0.3740 14.072176 10.241552 3.998210
474 48 3 -0.3740 15.626339 8.956661 4.967828
475 48 4 0.0680 13.342129 9.138437 4.567034
476 48 4 0.0680 14.448049 8.130997 4.902620
477 48 5 0.0755 12.625996 8.775987 3.821616
478 48 5 0.0755 12.807747 9.495220 5.456940
479 48 5 0.0755 14.592280 7.378830 4.115471
480 48 5 0.0755 14.317108 7.636751 5.871037
481 49 1 0.8610 5.158217 9.915726 11.785205
482 49 2 -0.5510 4.945644 10.147719 12.938148
483 49 3 -0.3740 4.688671 8.827363 11.110818
484 49 3 -0.3740 5.903191 10.700283 10.957090
485 49 4 0.0680 5.280337 8.781464 9.798868
486 49 4 0.0680 5.800959 10.210643 9.606481
487 49 5 0.0755 4.506074 8.493015 9.079717
488 49 5 0.0755 6.083641 8.033489 9.804102
489 49 5 0.0755 5.097605 10.849749 9.056029
490 49 5 0.0755 6.791977 10.261755 9.143313
491 50 1 0.8610 4.811356 11.369890 3.382477
492 50 2 -0.5510 3.697656 10.973426 3.207055
493 50 3 -0.3740 5.941191 10.636219 3.170339
494 50 3 -0.3740 5.133660 12.618550 3.822090
495 50 4 0.0680 7.086626 11.366884 3.647307
496 50 4 0.0680 6.560143 12.803246 3.748763
497 50 5 0.0755 7.900656 11.244986 2.924562
498 50 5 0.0755 7.384337 10.953559 4.619584
499 50 5 0.0755 6.788735 13.404606 2.858666
500 50 5 0.0755 6.887996 13.331851 4.650064

Bonds

1 1 1 2
2 2 1 3
3 2 1 4
4 3 3 5
5 3 4 6
6 4 5 6
7 5 5 7
8 5 5 8
9 5 6 9
10 5 6 10
11 1 11 12
12 2 11 13
13 2 11 14
14 3 13 15
15 3 14 16
16 4 15 16
17 5 15 17
18 5 15 18
19 5 16 19
20 5 16 20
21 1 21 22
22 2 21 23
23 2 21 24
24 3 23 25
25 3 24 26
26 4 25 26
27 5 25 27
28 5 25 28
29 5 26 29
30 5 26 30
31 1 31 32
32 2 31 33
33 2 31 34
34 3 33 35
35 3 34 36
36 4 35 36
37 5 35 37
38 5 35 38
39 5 36 39
40 5 36 40
41 1 41 42
42 2 41 43
43 2 41 44
44 3 43 45
45 3 44 46
46 4 45 46
47 5 45 47
48 5 45 48
49 5 46 49
50 5 46 50
51 1 51 52
52 2 51 53
53 2 51 54
54 3 53 55
55 3 54 56
56 4 55 56
57 5 55 57
58 5 55 58
59 5 56 59
60 5 56 60
61 1 61 62
62 2 61 63
63 2 61 64
64 3 63 65
65 3 64 66
66 4 65 66
67 5 65 67
68 5 65 68
69 5 66 69
70 5 66 70
71 1 71 72
72 2 71 73
73 2 71 74
74 3 73 75
75 3 74 76
76 4 75 76
77 5 75 77
78 5 75 78
79 5 76 79
80 5 76 80
81 1 81 82
82 2 81 83
83 2 81 84
84 3 83 85
85 3 84 86
86 4 85 86
87 5 85 87
88 5 85 88
89 5 86 89
90 5 86 90
91 1 91 92
92 2 91 93
93 2 91 94
94 3 93 95
95 3 94 96
96 4 95 96
97 5 95 97
98 5 95 98
99 5 96 99
100 5 96 100
101 1 101 102
102 2 101 103
103 2 101 104
104 3 103 105
105 3 104 106
106 4 105 106
107 5 105 107
108 5 105 108
109 5 106 109
110 5 106 110
111 1 111 112
112 2 111 113
113 2 111 114
114 3 113 115
115 3 114 116
116 4 115 116
117 5 115 117
118 5 115 118
119 5 116 119
120 5 116 120
121 1 121 122
122 2 121 123
123 2 121 124
124 3 123 125
125 3 124 126
126 4 125 126
127 5 125 127
128 5 125 128
129 5 126 129
130 5 126 130
131 1 131 132
132 2 131 133
133 2 131 134
134 3 133 135
135 3 134 136
136 4 135 136
137 5 135 137
138 5 135 138
139 5 136 139
140 5 136 140
141 1 141 142
142 2 141 143
143 2 141 144
144 3 143 145
145 3 144 146
146 4 145 146
147 5 145 147
148 5 145 148
149 5 146 149
150 5 146 150
151 1 151 152
152 2 151 153
153 2 151 154
154 3 153 155
155 3 154 156
156 4 155 156
157 5 155 157
158 5 155 158
159 5 156 159
160 5 156 160
161 1 161 162
162 2 161 163
163 2 161 164
164 3 163 165
165 3 164 166
166 4 165 166
167 5 165 167
168 5 165 168
169 5 166 169
170 5 166 170
171 1 171 172
172 2 171 173
173 2 171 174
174 3 173 175
175 3 174 176
176 4 175 176
177 5 175 177
178 5 175 178
179 5 176 179
180 5 176 180
181 1 181 182
182 2 181 183
183 2 181 184
184 3 183 185
185 3 184 186
186 4 185 186
187 5 185 187
188 5 185 188
189 5 186 189
190 5 186 190
191 1 191 192
192 2 191 193
193 2 191 194
194 3 193 195
195 3 194 196
196 4 195 196
197 5 195 197
198 5 195 198
199 5 196 199
200 5 196 200
201 1 201 202
202 2 201 203
203 2 201 204
204 3 203 205
205 3 204 206
206 4 205 206
207 5 205 207
208 5 205 208
209 5 206 209
210 5 206 210
211 1 211 212
212 2 211 213
213 2 211 214
214 3 213 215
215 3 214 216
216 4 215 216
217 5 215 217
218 5 215 218
219 5 216 219
220 5 216 220
221 1 221 222
222 2 221 223
223 2 221 224
224 3 223 225
225 3 224 226
226 4 225 226
227 5 225 227
228 5 225 228
229 5 226 229
230 5 226 230
231 1 231 232
232 2 231 233
233 2 231 234
234 3 233 235
235 3 234 236
236 4 235 236
237 5 235 237
238 5 235 238
239 5 236 239
240 5 236 240
241 1 241 242
242 2 241 243
243 2 241 244
244 3 243 245
245 3 244 246
246 4 245 246
247 5 245 247
248 5 245 248
249 5 246 249
250 5 246 250
251 1 251 252
252 2 251 253
253 2 251 254
254 3 253 255
255 3 254 256
256 4 255 256
257 5 255 257
258 5 255 258
259 5 256 259
260 5 256 260
261 1 261 262
262 2 261 263
263 2 261 264
264 3 263 265
265 3 264 266
266 4 265 266
267 5 265 267
268 5 265 268
269 5 266 269
270 5 266 270
271 1 271 272
272 2 271 273
273 2 271 274
274 3 273 275
275 3 274 276
276 4 275 276
277 5 275 277
278 5 275 278
279 5 276 279
280 5 276 280
281 1 281 282
282 2 281 283
283 2 281 284
284 3 283 285
285 3 284 286
286 4 285 286
287 5 285 287
288 5 285 288
289 5 286 289
290 5 286 290
291 1 291 292
292 2 291 293
293 2 291 294
294 3 293 295
295 3 294 296
296 4 295 296
297 5 295 297
298 5 295 298
299 5 296 299
300 5 296 300
301 1 301 302
302 2 301 303
303 2 301 304
304 3 303 305
305 3 304 306
306 4 305 306
307 5 305 307
308 5 305 308
309 5 306 309
310 5 306 310
311 1 311 312
312 2 311 313
313 2 311 314
314 3 313 315
315 3 314 316
316 4 315 316
317 5 315 317
318 5 315 318
319 5 316 319
320 5 316 320
321 1 321 322
322 2 321 323
323 2 321 324
324 3 323 325
325 3 324 326
326 4 325 326
327 5 325 327
328 5 325 328
329 5 326 329
330 5 326 330
331 1 331 332
332 2 331 333
333 2 331 334
334 3 333 335
335 3 334 336
336 4 335 336
337 5 335 337
338 5 335 338
339 5 336 339
340 5 336 340
341 1 341 342
342 2 341 343
343 2 341 344
344 3 343 345
345 3 344 346
346 4 345 346
347 5 345 347
348 5 345 348
349 5 346 349
350 5 346 350
351 1 351 352
352 2 351 353
353 2 351 354
354 3 353 355
355 3 354 356
356 4 355 356
357 5 355 357
358 5 355 358
359 5 356 359
360 5 356 360
361 1 361 362
362 2 361 363
363 2 361 364
364 3 363 365
365 3 364 366
366 4 365 366
367 5 365 367
368 5 365 368
369 5 366 369
370 5 366 370
371 1 371 372
372 2 371 373
373 2 371 374
374 3 373 375
375 3 374 376
376 4 375 376
377 5 375 377
378 5 375 378
379 5 376 379
380 5 376 380
381 1 381 382
382 2 381 383
383 2 381 384
384 3 383 385
385 3 384 386
386 4 385 386
387 5 385 387
388 5 385 388
389 5 386 389
390 5 386 390
391 1 391 392
392 2 391 393
393 2 391 394
394 3 393 395
395 3 394 396
396 4 395 396
397 5 395 397
398 5 395 398
399 5 396 399
400 5 396 400
401 1 401 402
402 2 401 403
403 2 401 404
404 3 403 405
405 3 404 406
406 4 405 406
407 5 405 407
408 5 405 408
409 5 406 409
410 5 406 410
411 1 411 412
412 2 411 413
413 2 411 414
414 3 413 415
415 3 414 416
416 4 415 416
417 5 415 417
418 5 415 418
419 5 416 419
420 5 416 420
421 1 421 422
422 2 421 423
423 2 421 424
424 3 423 425
425 3 424 426
426 4 425 426
427 5 425 427
428 5 425 428
429 5 426 429
430 5 426 430
431 1 431 432
432 2 431 433
433 2 431 434
434 3 433 435
435 3 434 436
436 4 435 436
437 5 435 437
438 5 435 438
439 5 436 439
440 5 436 440
441 1 441 442
442 2 441 443
443 2 441 444
444 3 443 445
445 3 444 446
446 4 445 446
447 5 445 447
448 5 445 448
449 5 446 449
450 5 446 450
451 1 451 452
452 2 451 453
453 2 451 454
454 3 453 455
455 3 454 456
456 4 455 456
457 5 455 457
458 5 455 458
459 5 456 459
460 5 456 460
461 1 461 462
462 2 461 463
463 2 461 464
464 3 463 465
465 3 464 466
466 4 465 466
467 5 465 467
468 5 465 468
469 5 466 469
470 5 466 470
471 1 471 472
472 2 471 473
473 2 471 474
474 3 473 475
475 3 474 476
476 4 475 476
477 5 475 477
478 5 475 478
479 5 476 479
480 5 476 480
481 1 481 482
482 2 481 483
483 2 481 484
484 3 483 485
485 3 484 486
486 4 485 486
487 5 485 487
488 5 485 488
489 5 486 489
490 5 486 490
491 1 491 492
492 2 491 493
493 2 491 494
494 3 493 495
495 3 494 496
496 4 495 496
497 5 495 497
498 5 495 498
499 5 496 499
500 5 496 500

Angles

1 1 1 3 5
2 1 1 4 6
3 2 2 1 3
4 2 2 1 4
5 3 3 1 4
6 4 3 5 6
7 5 3 5 7
8 5 3 5 8
9 4 4 6 5
10 5 4 6 9
11 5 4 6 10
12 6 5 6 9
13 6 5 6 10
14 6 6 5 7
15 6 6 5 8
16 7 7 5 8
17 7 9 6 10
18 1 11 13 15
19 1 11 14 16
20 2 12 11 13
21 2 12 11 14
22 3 13 11 14
23 4 13 15 16
24 5 13 15 17
25 5 13 15 18
26 4 14 16 15
27 5 14 16 19
28 5 14 16 20
29 6 15 16 19
30 6 15 16 20
31 6 16 15 17
32 6 16 15 18
33 7 17 15 18
34 7 19 16 20
35 1 21 23 25
36 1 21 24 26
37 2 22 21 23
38 2 22 21 24
39 3 23 21 24
40 4 23 25 26
41 5 23 25 27
42 5 23 25 28
43 4 24 26 25
44 5 24 26 29
45 5 24 26 30
46 6 25 26 29
47 6 25 26 30
48 6 26 25 27
49 6 26 25 28
50 7 27 25 28
51 7 29 26 30
52 1 31 33 35
53 1 31 34 36
54 2 32 31 33
55 2 32 31 34
56 3 33 31 34
57 4 33 35 36
58 5 33 35 37
59 5 33 35 38
60 4 34 36 35
61 5 34 36 39
62 5 34 36 40
63 6 35 36 39
64 6 35 36 40